#Header 
 
40 atoms 
 
2 atom types 
 
-12.80722452 12.80722452 xlo xhi 
0.00000000 4.05000000 ylo yhi 
0.00000000 6.40361226 zlo zhi 

Atoms 
 
1 1 0.64036123 2.02500000 4.48252858
2 1 1.28072245 0.00000000 2.56144490
3 1 2.56144490 0.00000000 5.12288981
4 1 3.20180613 2.02500000 3.20180613
5 1 4.48252858 2.02500000 5.76325104
6 1 5.12288981 0.00000000 3.84216736
7 1 0.00000000 0.00000000 0.00000000
8 1 1.92108368 2.02500000 0.64036123
9 1 3.84216736 0.00000000 1.28072245
10 1 5.76325104 2.02500000 1.92108368
11 1 7.04397349 2.02500000 4.48252858
12 1 7.68433471 0.00000000 2.56144490
13 1 8.96505717 0.00000000 5.12288981
14 1 9.60541839 2.02500000 3.20180613
15 1 10.88614085 2.02500000 5.76325104
16 1 11.52650207 0.00000000 3.84216736
17 1 6.40361226 0.00000000 0.00000000
18 1 8.32469594 2.02500000 0.64036123
19 1 10.24577962 0.00000000 1.28072245
20 1 12.16686330 2.02500000 1.92108368
21 2 -6.40361226 0.00000000 0.00000000
22 2 -5.76325104 2.02500000 1.92108368
23 2 -3.84216736 0.00000000 1.28072245
24 2 -5.12288981 0.00000000 3.84216736
25 2 -3.20180613 2.02500000 3.20180613
26 2 -4.48252858 2.02500000 5.76325104
27 2 -2.56144490 0.00000000 5.12288981
28 2 -1.92108368 2.02500000 0.64036123
29 2 -1.28072245 0.00000000 2.56144490
30 2 -0.64036123 2.02500000 4.48252858
31 2 -12.80722452 0.00000000 0.00000000
32 2 -12.16686330 2.02500000 1.92108368
33 2 -10.24577962 0.00000000 1.28072245
34 2 -11.52650207 0.00000000 3.84216736
35 2 -9.60541839 2.02500000 3.20180613
36 2 -10.88614085 2.02500000 5.76325104
37 2 -8.96505717 0.00000000 5.12288981
38 2 -8.32469594 2.02500000 0.64036123
39 2 -7.68433471 0.00000000 2.56144490
40 2 -7.04397349 2.02500000 4.48252858
